<?xml version="1.0" encoding="UTF-8"?>

<!-- generated on 2025-06-03 10:47:51 by Eclipse SUMO sumo Version 1.23.0
<sumoConfiguration xmlns:xsi="http://www.w3.org/2001/XMLSchema-instance" xsi:noNamespaceSchemaLocation="http://sumo.dlr.de/xsd/sumoConfiguration.xsd">

    <input>
        <net-file value="C:/Users/Aidan/AppData/LocalLow/DefaultCompany/Serious Games\SumoOutput\2025-05-06-18-46-49\osm.net.xml.gz"/>
        <route-files value="C:/Users/Aidan/AppData/LocalLow/DefaultCompany/Serious Games\SumoOutput\2025-05-06-18-46-49\osm.passenger.trips.xml"/>
        <additional-files value="C:/Users/Aidan/AppData/LocalLow/DefaultCompany/Serious Games\SumoOutput\2025-05-06-18-46-49\osm.poly.xml.gz,C:/Users/Aidan/AppData/LocalLow/DefaultCompany/Serious Games\SumoOutput\2025-05-06-18-46-49\output.add.xml"/>
    </input>

    <output>
        <tripinfo-output value="C:/Users/Aidan/AppData/LocalLow/DefaultCompany/Serious Games\SumoOutput\2025-05-06-18-46-49\tripinfos.xml"/>
        <statistic-output value="C:/Users/Aidan/AppData/LocalLow/DefaultCompany/Serious Games\SumoOutput\2025-05-06-18-46-49\stats.xml"/>
    </output>

    <processing>
        <ignore-route-errors value="true"/>
        <tls.actuated.jam-threshold value="30"/>
    </processing>

    <routing>
        <device.rerouting.adaptation-steps value="18"/>
        <device.rerouting.adaptation-interval value="10"/>
    </routing>

    <report>
        <verbose value="true"/>
        <duration-log.statistics value="true"/>
        <no-step-log value="true"/>
    </report>

    <traci_server>
        <remote-port value="51920"/>
    </traci_server>

    <gui_only>
        <gui-settings-file value="C:/Users/Aidan/AppData/LocalLow/DefaultCompany/Serious Games\SumoOutput\2025-05-06-18-46-49\osm.view.xml"/>
    </gui_only>

</sumoConfiguration>
-->

<meandata xmlns:xsi="http://www.w3.org/2001/XMLSchema-instance" xsi:noNamespaceSchemaLocation="http://sumo.dlr.de/xsd/meandata_file.xsd">
    <interval begin="0.00" end="3600.00" id="wizard_example">
        <edge id="-1006033769" sampledSeconds="4.15" traveltime="4.45" overlapTraveltime="5.38" density="0.07" laneDensity="0.07" occupancy="0.03" waitingTime="0.00" timeLoss="1.67" speed="4.14" speedRelative="0.50" departed="1" arrived="0" entered="0" left="1" laneChangedFrom="0" laneChangedTo="0"/>
        <edge id="-1015063873" sampledSeconds="0.00" departed="0" arrived="0" entered="0" left="0" laneChangedFrom="0" laneChangedTo="0"/>
        <edge id="-1015063875#0" sampledSeconds="0.00" departed="0" arrived="0" entered="0" left="0" laneChangedFrom="0" laneChangedTo="0"/>
        <edge id="-1015063876#1" sampledSeconds="0.00" departed="0" arrived="0" entered="0" left="0" laneChangedFrom="0" laneChangedTo="0"/>
        <edge id="-1015063877#1" sampledSeconds="0.00" departed="0" arrived="0" entered="0" left="0" laneChangedFrom="0" laneChangedTo="0"/>
        <edge id="-1015063879" sampledSeconds="0.00" departed="0" arrived="0" entered="0" left="0" laneChangedFrom="0" laneChangedTo="0"/>
        <edge id="-1015063883#0" sampledSeconds="0.00" departed="0" arrived="0" entered="0" left="0" laneChangedFrom="0" laneChangedTo="0"/>
        <edge id="-1015063883#1" sampledSeconds="0.00" departed="0" arrived="0" entered="0" left="0" laneChangedFrom="0" laneChangedTo="0"/>
        <edge id="-1015063885" sampledSeconds="0.00" departed="0" arrived="0" entered="0" left="0" laneChangedFrom="0" laneChangedTo="0"/>
        <edge id="-1015063886#0" sampledSeconds="0.00" departed="0" arrived="0" entered="0" left="0" laneChangedFrom="0" laneChangedTo="0"/>
        <edge id="-1015063887#1" sampledSeconds="0.00" departed="0" arrived="0" entered="0" left="0" laneChangedFrom="0" laneChangedTo="0"/>
        <edge id="-1024034687#0" sampledSeconds="37.94" traveltime="3.58" overlapTraveltime="4.30" density="0.43" laneDensity="0.43" occupancy="0.18" waitingTime="0.00" timeLoss="8.27" speed="6.82" speedRelative="0.82" departed="1" arrived="0" entered="8" left="9" laneChangedFrom="0" laneChangedTo="0"/>
        <edge id="-1024034687#1" sampledSeconds="5.12" traveltime="0.02" overlapTraveltime="0.64" density="7.11" laneDensity="7.11" occupancy="0.14" waitingTime="0.00" timeLoss="0.32" speed="8.13" speedRelative="0.98" departed="0" arrived="0" entered="8" left="8" laneChangedFrom="0" laneChangedTo="0"/>
        <edge id="-1024034687#2" sampledSeconds="16.83" traveltime="1.55" overlapTraveltime="2.19" density="0.41" laneDensity="0.41" occupancy="0.15" waitingTime="0.00" timeLoss="2.40" speed="7.44" speedRelative="0.89" departed="1" arrived="0" entered="7" left="8" laneChangedFrom="0" laneChangedTo="0"/>
        <edge id="-1024034687#3" sampledSeconds="20.24" traveltime="2.23" overlapTraveltime="2.87" density="0.32" laneDensity="0.32" occupancy="0.12" waitingTime="0.00" timeLoss="1.88" speed="7.88" speedRelative="0.95" departed="0" arrived="0" entered="8" left="7" laneChangedFrom="0" laneChangedTo="0"/>
        <edge id="-1024034687#5" sampledSeconds="28.70" traveltime="3.05" overlapTraveltime="3.67" density="0.35" laneDensity="0.35" occupancy="0.15" waitingTime="0.00" timeLoss="3.78" speed="7.54" speedRelative="0.91" departed="1" arrived="0" entered="7" left="8" laneChangedFrom="0" laneChangedTo="0"/>
        <edge id="-1024034687#6" sampledSeconds="16.17" traveltime="1.69" overlapTraveltime="2.31" density="0.33" laneDensity="0.33" occupancy="0.12" waitingTime="0.00" timeLoss="1.19" speed="8.04" speedRelative="0.96" departed="0" arrived="0" entered="7" left="7" laneChangedFrom="0" laneChangedTo="0"/>
        <edge id="-1024034687#7" sampledSeconds="21.24" traveltime="2.50" overlapTraveltime="3.14" density="0.34" laneDensity="0.34" occupancy="0.14" waitingTime="0.00" timeLoss="3.84" speed="7.09" speedRelative="0.85" departed="1" arrived="0" entered="6" left="7" laneChangedFrom="0" laneChangedTo="0"/>
        <edge id="-1024034687#8" sampledSeconds="10.28" traveltime="0.80" overlapTraveltime="1.71" density="0.93" laneDensity="0.93" occupancy="0.17" waitingTime="0.00" timeLoss="4.66" speed="4.70" speedRelative="0.56" departed="0" arrived="0" entered="6" left="6" laneChangedFrom="0" laneChangedTo="0"/>
        <edge id="-102408133#0" sampledSeconds="0.00" departed="0" arrived="0" entered="0" left="0" laneChangedFrom="0" laneChangedTo="0"/>
        <edge id="-102408133#1" sampledSeconds="0.00" departed="0" arrived="0" entered="0" left="0" laneChangedFrom="0" laneChangedTo="0"/>
        <edge id="-1040930907#3" sampledSeconds="14.07" traveltime="6.02" overlapTraveltime="7.04" density="0.17" laneDensity="0.17" occupancy="0.08" waitingTime="4.00" timeLoss="7.38" speed="3.89" speedRelative="0.47" departed="0" arrived="0" entered="2" left="2" laneChangedFrom="0" laneChangedTo="0"/>
        <edge id="-1040930907#4" sampledSeconds="17.88" traveltime="8.30" overlapTraveltime="8.94" density="0.08" laneDensity="0.08" occupancy="0.04" waitingTime="0.00" timeLoss="2.03" speed="7.26" speedRelative="0.87" departed="0" arrived="0" entered="2" left="2" laneChangedFrom="0" laneChangedTo="0"/>
        <edge id="-104991251#0" sampledSeconds="0.00" departed="0" arrived="0" entered="0" left="0" laneChangedFrom="0" laneChangedTo="0"/>
        <edge id="-104991251#2" sampledSeconds="0.00" departed="0" arrived="0" entered="0" left="0" laneChangedFrom="0" laneChangedTo="0"/>
        <edge id="-1056637173" sampledSeconds="0.00" departed="0" arrived="0" entered="0" left="0" laneChangedFrom="0" laneChangedTo="0"/>
        <edge id="-105742454" sampledSeconds="0.00" departed="0" arrived="0" entered="0" left="0" laneChangedFrom="0" laneChangedTo="0"/>
        <edge id="-105742455" sampledSeconds="0.00" departed="0" arrived="0" entered="0" left="0" laneChangedFrom="0" laneChangedTo="0"/>
        <edge id="-105742457" sampledSeconds="0.00" departed="0" arrived="0" entered="0" left="0" laneChangedFrom="0" laneChangedTo="0"/>
        <edge id="-1070046769#0" sampledSeconds="0.00" departed="0" arrived="0" entered="0" left="0" laneChangedFrom="0" laneChangedTo="0"/>
        <edge id="-1070046769#1" sampledSeconds="0.00" departed="0" arrived="0" entered="0" left="0" laneChangedFrom="0" laneChangedTo="0"/>
        <edge id="-1073875428" sampledSeconds="0.00" departed="0" arrived="0" entered="0" left="0" laneChangedFrom="0" laneChangedTo="0"/>
        <edge id="-1073949364#0" sampledSeconds="0.00" departed="0" arrived="0" entered="0" left="0" laneChangedFrom="0" laneChangedTo="0"/>
        <edge id="-1073949364#1" sampledSeconds="0.00" departed="0" arrived="0" entered="0" left="0" laneChangedFrom="0" laneChangedTo="0"/>
        <edge id="-1076059866" sampledSeconds="0.00" departed="0" arrived="0" entered="0" left="0" laneChangedFrom="0" laneChangedTo="0"/>
        <edge id="-1076059867" sampledSeconds="0.00" departed="0" arrived="0" entered="0" left="0" laneChangedFrom="0" laneChangedTo="0"/>
        <edge id="-1088428005" sampledSeconds="0.00" departed="0" arrived="0" entered="0" left="0" laneChangedFrom="0" laneChangedTo="0"/>
        <edge id="-1091249702#0" sampledSeconds="0.00" departed="0" arrived="0" entered="0" left="0" laneChangedFrom="0" laneChangedTo="0"/>
        <edge id="-1091249702#1" sampledSeconds="0.00" departed="0" arrived="0" entered="0" left="0" laneChangedFrom="0" laneChangedTo="0"/>
        <edge id="-1093147492#1" sampledSeconds="0.00" departed="0" arrived="0" entered="0" left="0" laneChangedFrom="0" laneChangedTo="0"/>
        <edge id="-1095407470#0" sampledSeconds="5.77" traveltime="0.64" overlapTraveltime="1.47" density="0.41" laneDensity="0.41" occupancy="0.09" waitingTime="0.00" timeLoss="0.44" speed="6.06" speedRelative="0.73" departed="0" arrived="3" entered="4" left="1" laneChangedFrom="0" laneChangedTo="0"/>
        <edge id="-1095407470#1" sampledSeconds="3.83" traveltime="0.29" overlapTraveltime="0.96" density="0.47" laneDensity="0.47" occupancy="0.07" waitingTime="0.00" timeLoss="0.30" speed="7.57" speedRelative="0.91" departed="0" arrived="0" entered="4" left="4" laneChangedFrom="0" laneChangedTo="0"/>
        <edge id="-1095407471#0" sampledSeconds="0.00" departed="0" arrived="0" entered="0" left="0" laneChangedFrom="0" laneChangedTo="0"/>
        <edge id="-1095407471#1" sampledSeconds="0.00" departed="0" arrived="0" entered="0" left="0" laneChangedFrom="0" laneChangedTo="0"/>
        <edge id="-109819340" sampledSeconds="0.00" departed="0" arrived="0" entered="0" left="0" laneChangedFrom="0" laneChangedTo="0"/>
        <edge id="-1098856743#1" sampledSeconds="25.60" traveltime="8.02" overlapTraveltime="8.69" density="0.12" laneDensity="0.12" occupancy="0.06" waitingTime="0.00" timeLoss="2.84" speed="7.36" speedRelative="0.88" departed="0" arrived="1" entered="3" left="2" laneChangedFrom="0" laneChangedTo="0"/>
        <edge id="-1100824590#0" sampledSeconds="159.25" traveltime="5.14" overlapTraveltime="5.52" density="0.70" laneDensity="0.70" occupancy="0.32" waitingTime="0.00" timeLoss="14.26" speed="12.40" speedRelative="0.89" departed="2" arrived="0" entered="27" left="29" laneChangedFrom="0" laneChangedTo="0"/>
        <edge id="-1100824590#1" sampledSeconds="46.93" traveltime="1.30" overlapTraveltime="1.74" density="1.01" laneDensity="1.01" occupancy="0.36" waitingTime="0.00" timeLoss="11.52" speed="10.32" speedRelative="0.74" departed="0" arrived="0" entered="27" left="27" laneChangedFrom="0" laneChangedTo="0"/>
        <edge id="-1100884512" sampledSeconds="5.58" traveltime="4.95" overlapTraveltime="5.58" density="0.04" laneDensity="0.04" occupancy="0.02" waitingTime="0.00" timeLoss="1.18" speed="8.09" speedRelative="0.97" departed="0" arrived="0" entered="1" left="1" laneChangedFrom="0" laneChangedTo="0"/>
        <edge id="-1101961674#1" sampledSeconds="172.74" traveltime="13.66" overlapTraveltime="14.55" density="0.63" laneDensity="0.63" occupancy="0.30" waitingTime="27.00" timeLoss="51.69" speed="5.57" speedRelative="0.67" departed="2" arrived="0" entered="10" left="12" laneChangedFrom="0" laneChangedTo="0"/>
        <edge id="-1101961674#2" sampledSeconds="13.45" traveltime="0.65" overlapTraveltime="1.35" density="0.80" laneDensity="0.80" occupancy="0.19" waitingTime="0.00" timeLoss="1.06" speed="7.18" speedRelative="0.86" departed="0" arrived="0" entered="10" left="10" laneChangedFrom="0" laneChangedTo="0"/>
        <edge id="-1101961674#3" sampledSeconds="8.90" traveltime="0.10" overlapTraveltime="0.90" density="3.53" laneDensity="3.53" occupancy="0.22" waitingTime="0.00" timeLoss="1.68" speed="6.33" speedRelative="0.76" departed="1" arrived="0" entered="9" left="10" laneChangedFrom="0" laneChangedTo="0"/>
        <edge id="-1101961674#4" sampledSeconds="29.81" traveltime="2.62" overlapTraveltime="3.31" density="0.44" laneDensity="0.44" occupancy="0.17" waitingTime="0.00" timeLoss="2.47" speed="7.20" speedRelative="0.86" departed="0" arrived="0" entered="9" left="9" laneChangedFrom="0" laneChangedTo="0"/>
        <edge id="-1101961735#0" sampledSeconds="60.31" traveltime="6.00" overlapTraveltime="6.70" density="0.39" laneDensity="0.39" occupancy="0.17" waitingTime="0.00" timeLoss="4.99" speed="7.23" speedRelative="0.87" departed="0" arrived="0" entered="9" left="9" laneChangedFrom="0" laneChangedTo="0"/>
        <edge id="-1101961735#1" sampledSeconds="27.50" traveltime="2.54" overlapTraveltime="3.23" density="0.47" laneDensity="0.47" occupancy="0.19" waitingTime="0.00" timeLoss="4.48" speed="6.59" speedRelative="0.79" departed="2" arrived="0" entered="7" left="9" laneChangedFrom="0" laneChangedTo="0"/>
        <edge id="-1101961737" sampledSeconds="17.58" traveltime="1.49" overlapTraveltime="2.20" density="0.52" laneDensity="0.52" occupancy="0.17" waitingTime="0.00" timeLoss="2.98" speed="6.55" speedRelative="0.79" departed="0" arrived="1" entered="8" left="7" laneChangedFrom="0" laneChangedTo="0"/>
        <edge id="-1102154070#1" sampledSeconds="44.67" traveltime="6.36" overlapTraveltime="7.44" density="0.43" laneDensity="0.43" occupancy="0.19" waitingTime="7.00" timeLoss="20.86" speed="4.59" speedRelative="0.55" departed="0" arrived="0" entered="6" left="6" laneChangedFrom="0" laneChangedTo="0"/>
        <edge id="-1102154070#2" sampledSeconds="31.65" traveltime="3.14" overlapTraveltime="3.96" density="0.36" laneDensity="0.36" occupancy="0.15" waitingTime="0.00" timeLoss="4.18" speed="7.37" speedRelative="0.88" departed="0" arrived="0" entered="8" left="8" laneChangedFrom="0" laneChangedTo="0"/>
        <edge id="-1102154080#1" sampledSeconds="13.49" traveltime="5.73" overlapTraveltime="6.75" density="0.09" laneDensity="0.09" occupancy="0.04" waitingTime="0.00" timeLoss="2.24" speed="7.16" speedRelative="0.86" departed="0" arrived="0" entered="2" left="2" laneChangedFrom="0" laneChangedTo="0"/>
        <edge id="-1102369940#0" sampledSeconds="54.93" traveltime="2.82" overlapTraveltime="3.44" density="0.42" laneDensity="0.42" occupancy="0.18" waitingTime="0.00" timeLoss="9.13" speed="12.04" speedRelative="0.87" departed="0" arrived="1" entered="16" left="15" laneChangedFrom="0" laneChangedTo="0"/>
        <edge id="-1102369940#1" sampledSeconds="11.03" traveltime="0.33" overlapTraveltime="0.69" density="0.67" laneDensity="0.67" occupancy="0.16" waitingTime="0.00" timeLoss="0.44" speed="13.86" speedRelative="1.00" departed="0" arrived="0" entered="16" left="16" laneChangedFrom="0" laneChangedTo="0"/>
        <edge id="-1102369942" sampledSeconds="40.89" traveltime="8.59" overlapTraveltime="10.81" density="0.61" laneDensity="0.61" occupancy="0.25" waitingTime="0.00" timeLoss="7.99" speed="2.19" speedRelative="0.79" departed="1" arrived="0" entered="3" left="4" laneChangedFrom="0" laneChangedTo="0"/>
        <edge id="-1102369946" sampledSeconds="32.23" traveltime="7.39" overlapTraveltime="8.06" density="0.16" laneDensity="0.16" occupancy="0.07" waitingTime="0.00" timeLoss="2.53" speed="7.61" speedRelative="0.91" departed="0" arrived="0" entered="4" left="4" laneChangedFrom="0" laneChangedTo="0"/>
        <edge id="-1102369962#0" sampledSeconds="12.74" traveltime="11.76" overlapTraveltime="13.69" density="0.05" laneDensity="0.05" occupancy="0.02" waitingTime="0.00" timeLoss="3.48" speed="5.41" speedRelative="0.65" departed="1" arrived="0" entered="0" left="1" laneChangedFrom="0" laneChangedTo="0"/>
        <edge id="-1102369963" sampledSeconds="1.56" traveltime="1.40" overlapTraveltime="2.04" density="0.04" laneDensity="0.04" occupancy="0.02" waitingTime="0.00" timeLoss="0.11" speed="7.93" speedRelative="0.95" departed="0" arrived="1" entered="1" left="0" laneChangedFrom="0" laneChangedTo="0"/>
        <edge id="-1102656539#0" sampledSeconds="8.35" traveltime="0.85" overlapTraveltime="1.95" density="0.43" laneDensity="0.43" occupancy="0.12" waitingTime="0.00" timeLoss="1.85" speed="5.31" speedRelative="0.64" departed="1" arrived="1" entered="4" left="4" laneChangedFrom="0" laneChangedTo="0"/>
        <edge id="-1103300964#0" sampledSeconds="45.85" traveltime="7.01" overlapTraveltime="7.65" density="0.24" laneDensity="0.24" occupancy="0.11" waitingTime="0.00" timeLoss="3.91" speed="7.55" speedRelative="0.91" departed="0" arrived="1" entered="6" left="5" laneChangedFrom="0" laneChangedTo="0"/>
        <edge id="-1103300964#2" sampledSeconds="56.17" traveltime="4.51" overlapTraveltime="5.62" density="2.33" laneDensity="2.33" occupancy="0.95" waitingTime="21.00" timeLoss="41.72" speed="2.08" speedRelative="0.25" departed="0" arrived="0" entered="10" left="10" laneChangedFrom="0" laneChangedTo="0"/>
        <edge id="-110464118#0" sampledSeconds="0.00" departed="0" arrived="0" entered="0" left="0" laneChangedFrom="0" laneChangedTo="0"/>
        <edge id="-110464118#1" sampledSeconds="0.00" departed="0" arrived="0" entered="0" left="0" laneChangedFrom="0" laneChangedTo="0"/>
        <edge id="-110464119#1" sampledSeconds="21.46" traveltime="6.43" overlapTraveltime="7.15" density="0.13" laneDensity="0.13" occupancy="0.06" waitingTime="0.00" timeLoss="2.97" speed="7.08" speedRelative="0.85" departed="0" arrived="0" entered="3" left="3" laneChangedFrom="0" laneChangedTo="0"/>
        <edge id="-110464119#2" sampledSeconds="19.39" traveltime="5.80" overlapTraveltime="6.46" density="0.13" laneDensity="0.13" occupancy="0.06" waitingTime="0.00" timeLoss="2.51" speed="7.15" speedRelative="0.86" departed="0" arrived="0" entered="3" left="3" laneChangedFrom="0" laneChangedTo="0"/>
        <edge id="-1105526111#1" sampledSeconds="2.60" traveltime="2.15" overlapTraveltime="2.88" density="0.05" laneDensity="0.05" occupancy="0.02" waitingTime="0.00" timeLoss="0.13" speed="6.92" speedRelative="0.83" departed="0" arrived="1" entered="1" left="0" laneChangedFrom="0" laneChangedTo="0"/>
        <edge id="-1105574291#0" sampledSeconds="2.77" traveltime="0.20" overlapTraveltime="1.56" density="0.53" laneDensity="0.53" occupancy="0.07" waitingTime="0.00" timeLoss="1.24" speed="4.14" speedRelative="0.50" departed="1" arrived="0" entered="1" left="2" laneChangedFrom="0" laneChangedTo="0"/>
        <edge id="-1105574291#1" sampledSeconds="12.79" traveltime="12.87" overlapTraveltime="13.54" density="0.04" laneDensity="0.04" occupancy="0.02" waitingTime="0.00" timeLoss="2.47" speed="6.74" speedRelative="0.81" departed="1" arrived="0" entered="0" left="1" laneChangedFrom="0" laneChangedTo="0"/>
        <edge id="-1105574291#2" sampledSeconds="2.91" traveltime="2.49" overlapTraveltime="3.38" density="0.07" laneDensity="0.07" occupancy="0.02" waitingTime="0.00" timeLoss="1.12" speed="4.81" speedRelative="0.58" departed="0" arrived="1" entered="1" left="0" laneChangedFrom="0" laneChangedTo="0"/>
        <edge id="-1110526068" sampledSeconds="85.45" traveltime="5.00" overlapTraveltime="5.36" density="0.36" laneDensity="0.36" occupancy="0.17" waitingTime="0.00" timeLoss="8.06" speed="13.07" speedRelative="0.94" departed="1" arrived="0" entered="15" left="16" laneChangedFrom="0" laneChangedTo="0"/>
        <edge id="-1110748916#1" sampledSeconds="57.49" traveltime="3.72" overlapTraveltime="4.45" density="0.37" laneDensity="0.37" occupancy="0.16" waitingTime="0.00" timeLoss="8.49" speed="10.92" speedRelative="0.79" departed="0" arrived="2" entered="13" left="11" laneChangedFrom="0" laneChangedTo="0"/>
        <edge id="-1110749336#0" sampledSeconds="6.68" traveltime="0.30" overlapTraveltime="1.34" density="1.36" laneDensity="1.36" occupancy="0.15" waitingTime="0.00" timeLoss="2.80" speed="4.76" speedRelative="0.57" departed="0" arrived="1" entered="5" left="4" laneChangedFrom="0" laneChangedTo="0"/>
        <edge id="-111251382#2" sampledSeconds="270.86" traveltime="8.10" overlapTraveltime="9.18" density="10.10" laneDensity="5.05" occupancy="2.31" waitingTime="186.00" timeLoss="237.51" speed="1.36" speedRelative="0.10" departed="0" arrived="3" entered="30" left="26" laneChangedFrom="0" laneChangedTo="0"/>
        <edge id="-111251382#3" sampledSeconds="59.78" traveltime="1.55" overlapTraveltime="2.01" density="0.90" laneDensity="0.45" occupancy="0.18" waitingTime="0.00" timeLoss="7.86" speed="11.73" speedRelative="0.84" departed="1" arrived="0" entered="29" left="30" laneChangedFrom="0" laneChangedTo="0"/>
        <edge id="-1113758935#0" sampledSeconds="0.00" departed="0" arrived="0" entered="0" left="0" laneChangedFrom="0" laneChangedTo="0"/>
        <edge id="-1114794283" sampledSeconds="0.00" departed="0" arrived="0" entered="0" left="0" laneChangedFrom="0" laneChangedTo="0"/>
        <edge id="-1114798610#0" sampledSeconds="40.08" traveltime="0.92" overlapTraveltime="1.56" density="1.55" laneDensity="1.55" occupancy="0.46" waitingTime="0.00" timeLoss="3.46" speed="7.84" speedRelative="0.94" departed="0" arrived="1" entered="26" left="25" laneChangedFrom="0" laneChangedTo="0"/>
        <edge id="-1114798610#1" sampledSeconds="27.13" traveltime="0.36" overlapTraveltime="0.98" density="2.55" laneDensity="2.55" occupancy="0.47" waitingTime="0.00" timeLoss="1.69" speed="8.08" speedRelative="0.97" departed="0" arrived="2" entered="28" left="26" laneChangedFrom="0" laneChangedTo="0"/>
        <edge id="-1115509343#0" sampledSeconds="315.27" traveltime="11.96" overlapTraveltime="12.61" density="0.95" laneDensity="0.95" occupancy="0.45" waitingTime="0.00" timeLoss="24.93" speed="7.74" speedRelative="0.93" departed="0" arrived="0" entered="25" left="25" laneChangedFrom="0" laneChangedTo="0"/>
        <edge id="-1115509343#1" sampledSeconds="18.48" traveltime="0.03" overlapTraveltime="0.72" density="25.67" laneDensity="25.67" occupancy="0.50" waitingTime="0.00" timeLoss="2.65" speed="7.21" speedRelative="0.87" departed="1" arrived="1" entered="25" left="25" laneChangedFrom="0" laneChangedTo="0"/>
        <edge id="-1115509343#2" sampledSeconds="34.38" traveltime="0.73" overlapTraveltime="1.38" density="1.68" laneDensity="1.68" occupancy="0.45" waitingTime="0.00" timeLoss="2.89" speed="7.77" speedRelative="0.93" departed="0" arrived="0" entered="25" left="25" laneChangedFrom="0" laneChangedTo="0"/>
        <edge id="-1115641284#0" sampledSeconds="0.00" departed="0" arrived="0" entered="0" left="0" laneChangedFrom="0" laneChangedTo="0"/>
        <edge id="-1115641284#1" sampledSeconds="0.00" departed="0" arrived="0" entered="0" left="0" laneChangedFrom="0" laneChangedTo="0"/>
        <edge id="-1115641285#1" sampledSeconds="32.99" traveltime="5.92" overlapTraveltime="7.05" density="0.66" laneDensity="0.66" occupancy="0.29" waitingTime="11.00" timeLoss="22.22" speed="2.67" speedRelative="0.32" departed="1" arrived="1" entered="4" left="4" laneChangedFrom="0" laneChangedTo="0"/>
        <edge id="-1115683807" sampledSeconds="0.00" departed="0" arrived="0" entered="0" left="0" laneChangedFrom="0" laneChangedTo="0"/>
        <edge id="-1115683808" sampledSeconds="0.00" departed="0" arrived="0" entered="0" left="0" laneChangedFrom="0" laneChangedTo="0"/>
        <edge id="-1117432800" sampledSeconds="0.00" departed="0" arrived="0" entered="0" left="0" laneChangedFrom="0" laneChangedTo="0"/>
        <edge id="-111833185#0" sampledSeconds="78.08" traveltime="14.60" overlapTraveltime="15.72" density="0.20" laneDensity="0.20" occupancy="0.09" waitingTime="0.00" timeLoss="7.99" speed="7.27" speedRelative="0.87" departed="0" arrived="3" entered="5" left="2" laneChangedFrom="0" laneChangedTo="0"/>
        <edge id="-111833185#1" sampledSeconds="27.95" traveltime="5.06" overlapTraveltime="5.73" density="0.21" laneDensity="0.21" occupancy="0.09" waitingTime="0.00" timeLoss="3.13" speed="7.45" speedRelative="0.89" departed="1" arrived="0" entered="4" left="5" laneChangedFrom="0" laneChangedTo="0"/>
        <edge id="-1119854969#0" sampledSeconds="90.66" traveltime="2.98" overlapTraveltime="3.63" density="1.09" laneDensity="1.09" occupancy="0.45" waitingTime="0.00" timeLoss="7.33" speed="7.75" speedRelative="0.93" departed="0" arrived="0" entered="25" left="25" laneChangedFrom="0" laneChangedTo="0"/>
        <edge id="-1119854969#1" sampledSeconds="21.45" traveltime="0.22" overlapTraveltime="0.86" density="3.59" laneDensity="3.59" occupancy="0.45" waitingTime="0.00" timeLoss="1.70" speed="7.76" speedRelative="0.93" departed="0" arrived="0" entered="25" left="25" laneChangedFrom="0" laneChangedTo="0"/>
        <edge id="-1119933622" sampledSeconds="972.31" traveltime="12.77" overlapTraveltime="13.74" density="3.50" laneDensity="3.50" occupancy="1.65" waitingTime="87.00" timeLoss="296.58" speed="5.98" speedRelative="0.72" departed="0" arrived="1" entered="71" left="69" laneChangedFrom="0" laneChangedTo="0"/>
        <edge id="-1119938072#0" sampledSeconds="4.26" traveltime="4.30" overlapTraveltime="5.81" density="0.08" laneDensity="0.08" occupancy="0.03" waitingTime="0.00" timeLoss="1.63" speed="3.29" speedRelative="0.39" departed="1" arrived="0" entered="0" left="1" laneChangedFrom="0" laneChangedTo="0"/>
        <edge id="-1119938072#1" sampledSeconds="2.71" traveltime="2.35" overlapTraveltime="2.89" density="0.04" laneDensity="0.04" occupancy="0.02" waitingTime="0.00" timeLoss="0.21" speed="8.92" speedRelative="1.07" departed="0" arrived="1" entered="1" left="0" laneChangedFrom="0" laneChangedTo="0"/>
        <edge id="-1120380858#0" sampledSeconds="0.00" departed="0" arrived="0" entered="0" left="0" laneChangedFrom="0" laneChangedTo="0"/>
        <edge id="-1120380858#1" sampledSeconds="0.00" departed="0" arrived="0" entered="0" left="0" laneChangedFrom="0" laneChangedTo="0"/>
        <edge id="-1120532695" sampledSeconds="0.00" departed="0" arrived="0" entered="0" left="0" laneChangedFrom="0" laneChangedTo="0"/>
        <edge id="-1120535561" sampledSeconds="0.00" departed="0" arrived="0" entered="0" left="0" laneChangedFrom="0" laneChangedTo="0"/>
        <edge id="-1121008013#0" sampledSeconds="41.16" traveltime="3.96" overlapTraveltime="4.57" density="0.36" laneDensity="0.36" occupancy="0.15" waitingTime="0.00" timeLoss="2.97" speed="8.12" speedRelative="0.97" departed="0" arrived="0" entered="9" left="9" laneChangedFrom="0" laneChangedTo="0"/>
        <edge id="-1121008013#1" sampledSeconds="18.59" traveltime="1.43" overlapTraveltime="2.07" density="0.44" laneDensity="0.44" occupancy="0.15" waitingTime="0.00" timeLoss="1.41" speed="8.09" speedRelative="0.97" departed="0" arrived="0" entered="9" left="9" laneChangedFrom="0" laneChangedTo="0"/>
        <edge id="-1121008013#2" sampledSeconds="108.61" traveltime="11.46" overlapTraveltime="12.07" density="0.34" laneDensity="0.34" occupancy="0.16" waitingTime="0.00" timeLoss="10.83" speed="7.88" speedRelative="0.95" departed="0" arrived="0" entered="9" left="9" laneChangedFrom="0" laneChangedTo="0"/>
        <edge id="-1121012037#0" sampledSeconds="28.12" traveltime="1.80" overlapTraveltime="2.16" density="0.32" laneDensity="0.32" occupancy="0.13" waitingTime="0.00" timeLoss="1.48" speed="13.73" speedRelative="0.99" departed="0" arrived="0" entered="13" left="13" laneChangedFrom="0" laneChangedTo="0"/>
        <edge id="-1121012037#1" sampledSeconds="6.25" traveltime="0.02" overlapTraveltime="0.45" density="8.69" laneDensity="8.69" occupancy="0.17" waitingTime="0.00" timeLoss="0.72" speed="11.64" speedRelative="0.84" departed="0" arrived="0" entered="14" left="14" laneChangedFrom="0" laneChangedTo="0"/>
        <edge id="-112128416" sampledSeconds="0.00" departed="0" arrived="0" entered="0" left="0" laneChangedFrom="0" laneChangedTo="0"/>
        <edge id="-112128423" sampledSeconds="0.00" departed="0" arrived="0" entered="0" left="0" laneChangedFrom="0" laneChangedTo="0"/>
        <edge id="-112128825#0" sampledSeconds="0.00" departed="0" arrived="0" entered="0" left="0" laneChangedFrom="0" laneChangedTo="0"/>
        <edge id="-1123106322#1" sampledSeconds="8.58" traveltime="7.84" overlapTraveltime="8.58" density="0.04" laneDensity="0.04" occupancy="0.02" waitingTime="0.00" timeLoss="0.92" speed="6.92" speedRelative="0.83" departed="0" arrived="0" entered="1" left="1" laneChangedFrom="0" laneChangedTo="0"/>
        <edge id="-1123106898#0" sampledSeconds="22.59" traveltime="10.21" overlapTraveltime="11.29" density="0.14" laneDensity="0.14" occupancy="0.07" waitingTime="5.00" timeLoss="9.37" speed="4.36" speedRelative="0.52" departed="0" arrived="0" entered="2" left="2" laneChangedFrom="0" laneChangedTo="0"/>
        <edge id="-1123106898#1" sampledSeconds="12.50" traveltime="5.50" overlapTraveltime="6.25" density="0.09" laneDensity="0.09" occupancy="0.04" waitingTime="0.00" timeLoss="1.08" speed="6.82" speedRelative="0.82" departed="0" arrived="0" entered="2" left="2" laneChangedFrom="0" laneChangedTo="0"/>
        <edge id="-1123150361#1" sampledSeconds="87.50" traveltime="17.89" overlapTraveltime="18.57" density="0.19" laneDensity="0.19" occupancy="0.09" waitingTime="0.00" timeLoss="8.00" speed="7.24" speedRelative="0.87" departed="0" arrived="0" entered="5" left="4" laneChangedFrom="0" laneChangedTo="0"/>