<?xml version="1.0" encoding="UTF-8"?>

<!-- generated on 2025-06-03 10:47:50 by Eclipse SUMO sumo Version 1.23.0
<sumoConfiguration xmlns:xsi="http://www.w3.org/2001/XMLSchema-instance" xsi:noNamespaceSchemaLocation="http://sumo.dlr.de/xsd/sumoConfiguration.xsd">

    <input>
        <net-file value="C:/Users/Aidan/AppData/LocalLow/DefaultCompany/Serious Games\SumoOutput\2025-05-06-18-46-49\osm.net.xml.gz"/>
        <route-files value="C:/Users/Aidan/AppData/LocalLow/DefaultCompany/Serious Games\SumoOutput\2025-05-06-18-46-49\osm.passenger.trips.xml"/>
        <additional-files value="C:/Users/Aidan/AppData/LocalLow/DefaultCompany/Serious Games\SumoOutput\2025-05-06-18-46-49\osm.poly.xml.gz,C:/Users/Aidan/AppData/LocalLow/DefaultCompany/Serious Games\SumoOutput\2025-05-06-18-46-49\output.add.xml"/>
    </input>

    <output>
        <tripinfo-output value="C:/Users/Aidan/AppData/LocalLow/DefaultCompany/Serious Games\SumoOutput\2025-05-06-18-46-49\tripinfos.xml"/>
        <statistic-output value="C:/Users/Aidan/AppData/LocalLow/DefaultCompany/Serious Games\SumoOutput\2025-05-06-18-46-49\stats.xml"/>
    </output>

    <processing>
        <ignore-route-errors value="true"/>
        <tls.actuated.jam-threshold value="30"/>
    </processing>

    <routing>
        <device.rerouting.adaptation-steps value="18"/>
        <device.rerouting.adaptation-interval value="10"/>
    </routing>

    <report>
        <verbose value="true"/>
        <duration-log.statistics value="true"/>
        <no-step-log value="true"/>
    </report>

    <traci_server>
        <remote-port value="51920"/>
    </traci_server>

    <gui_only>
        <gui-settings-file value="C:/Users/Aidan/AppData/LocalLow/DefaultCompany/Serious Games\SumoOutput\2025-05-06-18-46-49\osm.view.xml"/>
    </gui_only>

</sumoConfiguration>
-->

<tripinfos xmlns:xsi="http://www.w3.org/2001/XMLSchema-instance" xsi:noNamespaceSchemaLocation="http://sumo.dlr.de/xsd/tripinfo_file.xsd">
    <tripinfo id="veh4" depart="18.00" departLane="-437325047#6_0" departPos="5.10" departSpeed="0.00" departDelay="0.21" arrival="98.00" arrivalLane="168940071#7_0" arrivalPos="55.02" arrivalSpeed="8.08" duration="80.00" routeLength="607.96" waitingTime="6.00" waitingCount="1" stopTime="0.00" timeLoss="16.35" rerouteNo="1" devices="tripinfo_veh4 routing_veh4" vType="veh_passenger" speedFactor="1.03" vaporized=""/>
    <tripinfo id="veh6" depart="27.00" departLane="24913267#3_0" departPos="5.10" departSpeed="0.00" departDelay="0.31" arrival="141.00" arrivalLane="194073677#2_0" arrivalPos="0.20" arrivalSpeed="2.89" duration="114.00" routeLength="745.80" waitingTime="4.00" waitingCount="1" stopTime="0.00" timeLoss="26.25" rerouteNo="1" devices="tripinfo_veh6 routing_veh6" vType="veh_passenger" speedFactor="1.05" vaporized=""/>
    <tripinfo id="veh20" depart="89.00" departLane="-1263204721_0" departPos="2.17" departSpeed="0.00" departDelay="0.03" arrival="168.00" arrivalLane="-4610612#0_0" arrivalPos="49.24" arrivalSpeed="8.16" duration="79.00" routeLength="628.64" waitingTime="0.00" waitingCount="0" stopTime="0.00" timeLoss="11.85" rerouteNo="1" devices="tripinfo_veh20 routing_veh20" vType="veh_passenger" speedFactor="1.02" vaporized=""/>
    <tripinfo id="veh25" depart="112.00" departLane="-24242882#1_0" departPos="5.10" departSpeed="0.00" departDelay="0.78" arrival="215.00" arrivalLane="1126246695#1_0" arrivalPos="2.88" arrivalSpeed="11.17" duration="103.00" routeLength="872.23" waitingTime="2.00" waitingCount="1" stopTime="0.00" timeLoss="24.07" rerouteNo="1" devices="tripinfo_veh25 routing_veh25" vType="veh_passenger" speedFactor="0.87" vaporized=""/>
    <tripinfo id="veh16" depart="72.00" departLane="4588219#1_0" departPos="5.10" departSpeed="0.00" departDelay="0.82" arrival="226.00" arrivalLane="24242892#4_1" arrivalPos="3.55" arrivalSpeed="6.44" duration="154.00" routeLength="1139.83" waitingTime="11.00" waitingCount="2" stopTime="0.00" timeLoss="34.66" rerouteNo="1" devices="tripinfo_veh16 routing_veh16" vType="veh_passenger" speedFactor="0.88" vaporized=""/>
    <tripinfo id="veh24" depart="107.00" departLane="246052428_1" departPos="5.10" departSpeed="0.00" departDelay="0.23" arrival="226.00" arrivalLane="24241762#1_0" arrivalPos="52.87" arrivalSpeed="6.11" duration="119.00" routeLength="598.57" waitingTime="27.00" waitingCount="2" stopTime="0.00" timeLoss="48.25" rerouteNo="1" devices="tripinfo_veh24 routing_veh24" vType="veh_passenger" speedFactor="0.83" vaporized=""/>
    <tripinfo id="veh27" depart="121.00" departLane="4610476#4_0" departPos="5.10" departSpeed="0.00" departDelay="0.89" arrival="258.00" arrivalLane="35269774#0_0" arrivalPos="26.37" arrivalSpeed="12.41" duration="137.00" routeLength="907.14" waitingTime="17.00" waitingCount="2" stopTime="0.00" timeLoss="37.96" rerouteNo="1" devices="tripinfo_veh27 routing_veh27" vType="veh_passenger" speedFactor="0.95" vaporized=""/>
    <tripinfo id="veh17" depart="76.00" departLane="4612961#1_1" departPos="5.10" departSpeed="0.00" departDelay="0.37" arrival="266.00" arrivalLane="202156994#0_2" arrivalPos="75.08" arrivalSpeed="11.81" duration="190.00" routeLength="1561.46" waitingTime="31.00" waitingCount="2" stopTime="0.00" timeLoss="59.47" rerouteNo="1" devices="tripinfo_veh17 routing_veh17" vType="veh_passenger" speedFactor="0.94" vaporized=""/>
    <tripinfo id="veh33" depart="147.00" departLane="534588621#0_1" departPos="5.10" departSpeed="0.00" departDelay="0.20" arrival="266.00" arrivalLane="1320422400#0_0" arrivalPos="81.22" arrivalSpeed="8.49" duration="119.00" routeLength="872.99" waitingTime="24.00" waitingCount="2" stopTime="0.00" timeLoss="47.98" rerouteNo="1" devices="tripinfo_veh33 routing_veh33" vType="veh_passenger" speedFactor="1.17" vaporized=""/>
    <tripinfo id="veh5" depart="23.00" departLane="-111833185#1_0" departPos="5.10" departSpeed="0.00" departDelay="0.76" arrival="276.00" arrivalLane="-36689633#1_0" arrivalPos="0.20" arrivalSpeed="6.61" duration="253.00" routeLength="1481.19" waitingTime="24.00" waitingCount="4" stopTime="0.00" timeLoss="70.98" rerouteNo="1" devices="tripinfo_veh5 routing_veh5" vType="veh_passenger" speedFactor="0.83" vaporized=""/>
    <tripinfo id="veh32" depart="143.00" departLane="24914141#0_2" departPos="5.10" departSpeed="13.96" departDelay="0.64" arrival="278.00" arrivalLane="1133761786_0" arrivalPos="35.12" arrivalSpeed="13.18" duration="135.00" routeLength="791.84" waitingTime="50.00" waitingCount="3" stopTime="0.00" timeLoss="77.61" rerouteNo="1" devices="tripinfo_veh32 routing_veh32" vType="veh_passenger" speedFactor="1.01" vaporized=""/>
    <tripinfo id="veh53" depart="236.00" departLane="-1024034687#0_0" departPos="5.10" departSpeed="0.00" departDelay="0.22" arrival="284.00" arrivalLane="1102369938_0" arrivalPos="36.66" arrivalSpeed="14.10" duration="48.00" routeLength="467.23" waitingTime="0.00" waitingCount="0" stopTime="0.00" timeLoss="8.46" rerouteNo="1" devices="tripinfo_veh53 routing_veh53" vType="veh_passenger" speedFactor="1.10" vaporized=""/>
    <tripinfo id="veh31" depart="138.00" departLane="4613306#0_0" departPos="5.10" departSpeed="0.00" departDelay="0.09" arrival="291.00" arrivalLane="1098856743#1_0" arrivalPos="58.99" arrivalSpeed="8.64" duration="153.00" routeLength="1209.42" waitingTime="20.00" waitingCount="3" stopTime="0.00" timeLoss="52.27" rerouteNo="1" devices="tripinfo_veh31 routing_veh31" vType="veh_passenger" speedFactor="1.15" vaporized=""/>
    <tripinfo id="veh9" depart="41.00" departLane="43231842#3_0" departPos="5.10" departSpeed="0.00" departDelay="0.96" arrival="294.00" arrivalLane="301610520#1_0" arrivalPos="3.99" arrivalSpeed="10.86" duration="253.00" routeLength="1752.79" waitingTime="55.00" waitingCount="4" stopTime="0.00" timeLoss="94.31" rerouteNo="1" devices="tripinfo_veh9 routing_veh9" vType="veh_passenger" speedFactor="0.86" vaporized=""/>
    <tripinfo id="veh14" depart="63.00" departLane="173197451#2_0" departPos="5.10" departSpeed="0.00" departDelay="0.72" arrival="300.00" arrivalLane="82654059#1_1" arrivalPos="43.98" arrivalSpeed="13.03" duration="237.00" routeLength="1483.74" waitingTime="60.00" waitingCount="5" stopTime="0.00" timeLoss="87.87" rerouteNo="1" devices="tripinfo_veh14 routing_veh14" vType="veh_passenger" speedFactor="0.99" vaporized=""/>
    <tripinfo id="veh18" depart="81.00" departLane="301610520#1_0" departPos="3.99" departSpeed="0.00" departDelay="0.92" arrival="307.00" arrivalLane="-1127596842#0_0" arrivalPos="88.74" arrivalSpeed="12.20" duration="226.00" routeLength="1452.84" waitingTime="34.00" waitingCount="3" stopTime="0.00" timeLoss="70.50" rerouteNo="1" devices="tripinfo_veh18 routing_veh18" vType="veh_passenger" speedFactor="0.94" vaporized=""/>
    <tripinfo id="veh35" depart="156.00" departLane="19002363#4_0" departPos="2.49" departSpeed="0.00" departDelay="0.30" arrival="313.00" arrivalLane="-534588621#1_1" arrivalPos="17.94" arrivalSpeed="12.98" duration="157.00" routeLength="921.47" waitingTime="59.00" waitingCount="2" stopTime="0.00" timeLoss="71.96" rerouteNo="1" devices="tripinfo_veh35 routing_veh35" vType="veh_passenger" speedFactor="1.02" vaporized=""/>
    <tripinfo id="veh0" depart="0.00" departLane="-507023458#0_0" departPos="5.10" departSpeed="0.00" departDelay="0.00" arrival="321.00" arrivalLane="-4588217#1_0" arrivalPos="7.45" arrivalSpeed="7.87" duration="321.00" routeLength="2015.37" waitingTime="61.00" waitingCount="7" stopTime="0.00" timeLoss="120.70" rerouteNo="1" devices="tripinfo_veh0 routing_veh0" vType="veh_passenger" speedFactor="1.06" vaporized=""/>
    <tripinfo id="veh42" depart="187.00" departLane="288355301_1" departPos="2.18" departSpeed="15.17" departDelay="0.16" arrival="327.00" arrivalLane="188914559#1_0" arrivalPos="79.78" arrivalSpeed="9.05" duration="140.00" routeLength="992.88" waitingTime="30.00" waitingCount="2" stopTime="0.00" timeLoss="59.94" rerouteNo="1" devices="tripinfo_veh42 routing_veh42" vType="veh_passenger" speedFactor="1.09" vaporized=""/>
    <tripinfo id="veh7" depart="32.00" departLane="-4396823#0_0" departPos="5.10" departSpeed="0.00" departDelay="0.86" arrival="330.00" arrivalLane="23121445#4_0" arrivalPos="37.76" arrivalSpeed="6.45" duration="298.00" routeLength="1474.59" waitingTime="18.00" waitingCount="3" stopTime="0.00" timeLoss="67.26" rerouteNo="1" devices="tripinfo_veh7 routing_veh7" vType="veh_passenger" speedFactor="0.89" vaporized=""/>
    <tripinfo id="veh44" depart="196.00" departLane="-168940071#6_0" departPos="5.10" departSpeed="0.00" departDelay="0.26" arrival="340.00" arrivalLane="1173516144#1_0" arrivalPos="15.14" arrivalSpeed="8.31" duration="144.00" routeLength="1012.91" waitingTime="8.00" waitingCount="3" stopTime="0.00" timeLoss="34.30" rerouteNo="1" devices="tripinfo_veh44 routing_veh44" vType="veh_passenger" speedFactor="1.04" vaporized=""/>
    <tripinfo id="veh2" depart="9.00" departLane="4790799_0" departPos="5.10" departSpeed="14.03" departDelay="0.10" arrival="342.00" arrivalLane="-1305423286#0_0" arrivalPos="9.48" arrivalSpeed="8.20" duration="333.00" routeLength="2519.37" waitingTime="32.00" waitingCount="4" stopTime="0.00" timeLoss="78.72" rerouteNo="1" devices="tripinfo_veh2 routing_veh2" vType="veh_passenger" speedFactor="1.01" vaporized=""/>
    <tripinfo id="veh1" depart="5.00" departLane="312533962#0_1" departPos="5.10" departSpeed="13.03" departDelay="0.55" arrival="344.00" arrivalLane="292429062#1_0" arrivalPos="14.48" arrivalSpeed="6.80" duration="339.00" routeLength="3020.66" waitingTime="30.00" waitingCount="6" stopTime="0.00" timeLoss="99.99" rerouteNo="1" devices="tripinfo_veh1 routing_veh1" vType="veh_passenger" speedFactor="0.94" vaporized=""/>
    <tripinfo id="veh12" depart="54.00" departLane="-137630045#0_0" departPos="5.10" departSpeed="0.00" departDelay="0.62" arrival="344.00" arrivalLane="-147066248#0_0" arrivalPos="13.19" arrivalSpeed="1.70" duration="290.00" routeLength="1788.77" waitingTime="25.00" waitingCount="5" stopTime="0.00" timeLoss="78.98" rerouteNo="1" devices="tripinfo_veh12 routing_veh12" vType="veh_passenger" speedFactor="1.05" vaporized=""/>
    <tripinfo id="veh11" depart="49.00" departLane="756306892_0" departPos="5.10" departSpeed="0.00" departDelay="0.07" arrival="346.00" arrivalLane="111251382#1_0" arrivalPos="7.41" arrivalSpeed="9.76" duration="297.00" routeLength="2620.73" waitingTime="41.00" waitingCount="5" stopTime="0.00" timeLoss="102.26" rerouteNo="1" devices="tripinfo_veh11 routing_veh11" vType="veh_passenger" speedFactor="1.03" vaporized=""/>
    <tripinfo id="veh10" depart="45.00" departLane="1102154080#1_0" departPos="5.10" departSpeed="0.00" departDelay="0.51" arrival="348.00" arrivalLane="-23812656#3_0" arrivalPos="44.81" arrivalSpeed="14.67" duration="303.00" routeLength="2238.69" waitingTime="39.00" waitingCount="3" stopTime="0.00" timeLoss="90.73" rerouteNo="1" devices="tripinfo_veh10 routing_veh10" vType="veh_passenger" speedFactor="1.09" vaporized=""/>
    <tripinfo id="veh3" depart="14.00" departLane="114667396#2_0" departPos="5.10" departSpeed="0.00" departDelay="0.65" arrival="349.00" arrivalLane="-1115509343#1_0" arrivalPos="0.20" arrivalSpeed="8.83" duration="335.00" routeLength="2355.65" waitingTime="92.00" waitingCount="9" stopTime="0.00" timeLoss="160.37" rerouteNo="1" devices="tripinfo_veh3 routing_veh3" vType="veh_passenger" speedFactor="1.08" vaporized=""/>
    <tripinfo id="veh36" depart="161.00" departLane="196850608#1_0" departPos="5.10" departSpeed="0.00" departDelay="0.85" arrival="351.00" arrivalLane="490365295#0_1" arrivalPos="37.77" arrivalSpeed="7.93" duration="190.00" routeLength="1709.19" waitingTime="22.00" waitingCount="2" stopTime="0.00" timeLoss="58.43" rerouteNo="1" devices="tripinfo_veh36 routing_veh36" vType="veh_passenger" speedFactor="0.97" vaporized=""/>
    <tripinfo id="veh23" depart="103.00" departLane="-4773029#4_0" departPos="5.10" departSpeed="0.00" departDelay="0.68" arrival="359.00" arrivalLane="705182548_0" arrivalPos="112.52" arrivalSpeed="7.13" duration="256.00" routeLength="1624.18" waitingTime="46.00" waitingCount="4" stopTime="0.00" timeLoss="83.64" rerouteNo="1" devices="tripinfo_veh23 routing_veh23" vType="veh_passenger" speedFactor="0.89" vaporized=""/>
    <tripinfo id="veh45" depart="201.00" departLane="1198409426#2_0" departPos="5.10" departSpeed="0.00" departDelay="0.81" arrival="360.00" arrivalLane="7917219#4_0" arrivalPos="9.81" arrivalSpeed="8.96" duration="159.00" routeLength="818.26" waitingTime="59.00" waitingCount="3" stopTime="0.00" timeLoss="88.28" rerouteNo="1" devices="tripinfo_veh45 routing_veh45" vType="veh_passenger" speedFactor="1.09" vaporized=""/>
    <tripinfo id="veh54" depart="241.00" departLane="-85255869#2_0" departPos="5.10" departSpeed="13.93" departDelay="0.77" arrival="375.00" arrivalLane="-1151064407#2_0" arrivalPos="4.35" arrivalSpeed="7.78" duration="134.00" routeLength="1038.60" waitingTime="5.00" waitingCount="2" stopTime="0.00" timeLoss="23.49" rerouteNo="1" devices="tripinfo_veh54 routing_veh54" vType="veh_passenger" speedFactor="1.00" vaporized=""/>
    <tripinfo id="veh21" depart="94.00" departLane="-156364570#4_0" departPos="5.10" departSpeed="0.00" departDelay="0.58" arrival="378.00" arrivalLane="-750204886#0_0" arrivalPos="34.59" arrivalSpeed="8.33" duration="284.00" routeLength="2079.48" waitingTime="59.00" waitingCount="6" stopTime="0.00" timeLoss="115.75" rerouteNo="1" devices="tripinfo_veh21 routing_veh21" vType="veh_passenger" speedFactor="1.01" vaporized=""/>
    <tripinfo id="veh22" depart="98.00" departLane="1119936840#1_1" departPos="5.10" departSpeed="0.00" departDelay="0.13" arrival="380.00" arrivalLane="-437325048#1_0" arrivalPos="26.28" arrivalSpeed="8.06" duration="282.00" routeLength="1620.86" waitingTime="85.00" waitingCount="6" stopTime="0.00" timeLoss="133.15" rerouteNo="1" devices="tripinfo_veh22 routing_veh22" vType="veh_passenger" speedFactor="0.97" vaporized=""/>
    <tripinfo id="veh46" depart="205.00" departLane="4613298#1_0" departPos="5.10" departSpeed="0.00" departDelay="0.36" arrival="387.00" arrivalLane="-534588621#1_1" arrivalPos="17.94" arrivalSpeed="13.51" duration="182.00" routeLength="1279.42" waitingTime="34.00" waitingCount="3" stopTime="0.00" timeLoss="71.00" rerouteNo="1" devices="tripinfo_veh46 routing_veh46" vType="veh_passenger" speedFactor="1.00" vaporized=""/>
    <tripinfo id="veh34" depart="152.00" departLane="-474362271_0" departPos="5.10" departSpeed="0.00" departDelay="0.75" arrival="400.00" arrivalLane="-4612976#0_0" arrivalPos="9.60" arrivalSpeed="7.43" duration="248.00" routeLength="2190.05" waitingTime="15.00" waitingCount="3" stopTime="0.00" timeLoss="52.87" rerouteNo="1" devices="tripinfo_veh34 routing_veh34" vType="veh_passenger" speedFactor="0.99" vaporized=""/>
    <tripinfo id="veh51" depart="227.00" departLane="339201177#3_0" departPos="5.10" departSpeed="0.00" departDelay="0.12" arrival="407.00" arrivalLane="19002363#4_0" arrivalPos="2.49" arrivalSpeed="9.36" duration="180.00" routeLength="1429.66" waitingTime="12.00" waitingCount="1" stopTime="0.00" timeLoss="42.76" rerouteNo="1" devices="tripinfo_veh51 routing_veh51" vType="veh_passenger" speedFactor="1.17" vaporized=""/>
    <tripinfo id="veh72" depart="322.00" departLane="-153698380#2_0" departPos="5.10" departSpeed="0.00" departDelay="1.70" arrival="414.00" arrivalLane="1170522567#0_0" arrivalPos="56.48" arrivalSpeed="12.02" duration="92.00" routeLength="818.46" waitingTime="9.00" waitingCount="2" stopTime="0.00" timeLoss="23.75" rerouteNo="1" devices="tripinfo_veh72 routing_veh72" vType="veh_passenger" speedFactor="0.94" vaporized=""/>
    <tripinfo id="veh76" depart="339.00" departLane="1127602336_0" departPos="5.10" departSpeed="0.00" departDelay="0.91" arrival="418.00" arrivalLane="1113726463_1" arrivalPos="52.05" arrivalSpeed="14.32" duration="79.00" routeLength="696.30" waitingTime="0.00" waitingCount="0" stopTime="0.00" timeLoss="17.33" rerouteNo="1" devices="tripinfo_veh76 routing_veh76" vType="veh_passenger" speedFactor="1.03" vaporized=""/>
    <tripinfo id="veh8" depart="36.00" departLane="437325047#6_0" departPos="5.10" departSpeed="0.00" departDelay="0.41" arrival="419.00" arrivalLane="-1095407470#0_0" arrivalPos="3.89" arrivalSpeed="7.16" duration="383.00" routeLength="2454.50" waitingTime="58.00" waitingCount="7" stopTime="0.00" timeLoss="121.20" rerouteNo="1" devices="tripinfo_veh8 routing_veh8" vType="veh_passenger" speedFactor="0.94" vaporized=""/>
    <tripinfo id="veh13" depart="58.00" departLane="4610608_0" departPos="5.10" departSpeed="0.00" departDelay="0.17" arrival="426.00" arrivalLane="23809678#6_0" arrivalPos="26.74" arrivalSpeed="8.74" duration="368.00" routeLength="1863.44" waitingTime="140.00" waitingCount="7" stopTime="0.00" timeLoss="190.69" rerouteNo="1" devices="tripinfo_veh13 routing_veh13" vType="veh_passenger" speedFactor="1.12" vaporized=""/>
    <tripinfo id="veh15" depart="67.00" departLane="112128418#4_0" departPos="5.10" departSpeed="0.00" departDelay="0.27" arrival="435.00" arrivalLane="195397541#3_0" arrivalPos="17.76" arrivalSpeed="6.65" duration="368.00" routeLength="2792.98" waitingTime="56.00" waitingCount="2" stopTime="0.00" timeLoss="99.26" rerouteNo="1" devices="tripinfo_veh15 routing_veh15" vType="veh_passenger" speedFactor="0.93" vaporized=""/>
    <tripinfo id="veh26" depart="116.00" departLane="85255870#0_1" departPos="0.39" departSpeed="0.00" departDelay="0.34" arrival="438.00" arrivalLane="24992424#3_0" arrivalPos="25.87" arrivalSpeed="12.66" duration="322.00" routeLength="2681.41" waitingTime="44.00" waitingCount="5" stopTime="0.00" timeLoss="89.07" rerouteNo="1" devices="tripinfo_veh26 routing_veh26" vType="veh_passenger" speedFactor="0.92" vaporized=""/>
    <tripinfo id="veh37" depart="165.00" departLane="1126465703#1_0" departPos="5.10" departSpeed="0.00" departDelay="0.40" arrival="453.00" arrivalLane="-454285423#5_0" arrivalPos="10.28" arrivalSpeed="2.64" duration="288.00" routeLength="1630.16" waitingTime="46.00" waitingCount="5" stopTime="0.00" timeLoss="100.12" rerouteNo="1" devices="tripinfo_veh37 routing_veh37" vType="veh_passenger" speedFactor="1.18" vaporized=""/>
    <tripinfo id="veh66" depart="294.00" departLane="-454285423#4_0" departPos="0.20" departSpeed="0.00" departDelay="0.39" arrival="454.00" arrivalLane="51167934#5_0" arrivalPos="36.54" arrivalSpeed="6.35" duration="160.00" routeLength="555.46" waitingTime="22.00" waitingCount="3" stopTime="0.00" timeLoss="53.63" rerouteNo="1" devices="tripinfo_veh66 routing_veh66" vType="veh_passenger" speedFactor="0.91" vaporized=""/>
    <tripinfo id="veh81" depart="361.00" departLane="188044903#0_3" departPos="5.10" departSpeed="0.00" departDelay="0.66" arrival="462.00" arrivalLane="-1133992736#0_0" arrivalPos="24.58" arrivalSpeed="7.53" duration="101.00" routeLength="760.07" waitingTime="18.00" waitingCount="2" stopTime="0.00" timeLoss="41.48" rerouteNo="1" devices="tripinfo_veh81 routing_veh81" vType="veh_passenger" speedFactor="1.00" vaporized=""/>
    <tripinfo id="veh70" depart="312.00" departLane="1320422400#0_1" departPos="5.10" departSpeed="0.00" departDelay="0.60" arrival="464.00" arrivalLane="370359204#3_0" arrivalPos="87.72" arrivalSpeed="8.26" duration="152.00" routeLength="1161.84" waitingTime="14.00" waitingCount="3" stopTime="0.00" timeLoss="39.11" rerouteNo="1" devices="tripinfo_veh70 routing_veh70" vType="veh_passenger" speedFactor="1.02" vaporized=""/>
    <tripinfo id="veh40" depart="178.00" departLane="882389497#1_0" departPos="5.10" departSpeed="0.00" departDelay="0.06" arrival="467.00" arrivalLane="177372522_0" arrivalPos="36.58" arrivalSpeed="13.69" duration="289.00" routeLength="2507.11" waitingTime="38.00" waitingCount="5" stopTime="0.00" timeLoss="101.17" rerouteNo="1" devices="tripinfo_veh40 routing_veh40" vType="veh_passenger" speedFactor="1.03" vaporized=""/>
    <tripinfo id="veh60" depart="267.00" departLane="1149417521#1_0" departPos="5.10" departSpeed="0.00" departDelay="0.08" arrival="468.00" arrivalLane="-4396823#4_0" arrivalPos="37.01" arrivalSpeed="8.82" duration="201.00" routeLength="1730.33" waitingTime="32.00" waitingCount="3" stopTime="0.00" timeLoss="70.93" rerouteNo="1" devices="tripinfo_veh60 routing_veh60" vType="veh_passenger" speedFactor="1.08" vaporized=""/>
    <tripinfo id="veh74" depart="330.00" departLane="312357351#3_2" departPos="0.20" departSpeed="0.00" departDelay="0.80" arrival="469.00" arrivalLane="29177662#2_0" arrivalPos="27.22" arrivalSpeed="12.84" duration="139.00" routeLength="756.64" waitingTime="38.00" waitingCount="4" stopTime="0.00" timeLoss="65.33" rerouteNo="1" devices="tripinfo_veh74 routing_veh74" vType="veh_passenger" speedFactor="0.96" vaporized=""/>
    <tripinfo id="veh28" depart="125.00" departLane="-454285423#5_0" departPos="5.10" departSpeed="0.00" departDelay="0.44" arrival="471.00" arrivalLane="-111833185#0_0" arrivalPos="109.20" arrivalSpeed="8.56" duration="346.00" routeLength="1774.08" waitingTime="95.00" waitingCount="7" stopTime="0.00" timeLoss="153.63" rerouteNo="1" devices="tripinfo_veh28 routing_veh28" vType="veh_passenger" speedFactor="1.13" vaporized=""/>
    <tripinfo id="veh43" depart="192.00" departLane="-4773029#4_0" departPos="5.10" departSpeed="0.00" departDelay="0.71" arrival="472.00" arrivalLane="24993933#0_0" arrivalPos="0.20" arrivalSpeed="7.95" duration="280.00" routeLength="2272.14" waitingTime="49.00" waitingCount="4" stopTime="0.00" timeLoss="86.72" rerouteNo="1" devices="tripinfo_veh43 routing_veh43" vType="veh_passenger" speedFactor="1.04" vaporized=""/>
    <tripinfo id="veh50" depart="223.00" departLane="233835385_3" departPos="4.91" departSpeed="11.87" departDelay="0.57" arrival="477.00" arrivalLane="-23755739#1_0" arrivalPos="37.65" arrivalSpeed="6.34" duration="254.00" routeLength="1792.17" waitingTime="6.00" waitingCount="3" stopTime="0.00" timeLoss="44.26" rerouteNo="1" devices="tripinfo_veh50 routing_veh50" vType="veh_passenger" speedFactor="0.85" vaporized=""/>
    <tripinfo id="veh30" depart="134.00" departLane="-36689633#1_0" departPos="0.20" departSpeed="0.00" departDelay="0.54" arrival="492.00" arrivalLane="749876418#0_0" arrivalPos="73.42" arrivalSpeed="15.46" duration="358.00" routeLength="2550.27" waitingTime="72.00" waitingCount="8" stopTime="0.00" timeLoss="139.78" rerouteNo="1" devices="tripinfo_veh30 routing_veh30" vType="veh_passenger" speedFactor="1.18" vaporized=""/>
    <tripinfo id="veh29" depart="130.00" departLane="100405009#2_2" departPos="5.10" departSpeed="0.00" departDelay="0.99" arrival="499.00" arrivalLane="-6227658#0_0" arrivalPos="25.55" arrivalSpeed="7.11" duration="369.00" routeLength="2239.10" waitingTime="63.00" waitingCount="8" stopTime="0.00" timeLoss="125.69" rerouteNo="1" devices="tripinfo_veh29 routing_veh29" vType="veh_passenger" speedFactor="0.93" vaporized=""/>
    <tripinfo id="veh38" depart="170.00" departLane="-1353005053#1_0" departPos="0.61" departSpeed="0.00" departDelay="0.95" arrival="504.00" arrivalLane="-1127602092#1_0" arrivalPos="26.37" arrivalSpeed="8.97" duration="334.00" routeLength="2675.81" waitingTime="41.00" waitingCount="6" stopTime="0.00" timeLoss="110.04" rerouteNo="1" devices="tripinfo_veh38 routing_veh38" vType="veh_passenger" speedFactor="1.10" vaporized=""/>
    <tripinfo id="veh48" depart="214.00" departLane="52328295#0_0" departPos="0.20" departSpeed="0.00" departDelay="0.47" arrival="505.00" arrivalLane="4613295#5_0" arrivalPos="47.19" arrivalSpeed="6.54" duration="291.00" routeLength="1990.43" waitingTime="61.00" waitingCount="4" stopTime="0.00" timeLoss="93.43" rerouteNo="1" devices="tripinfo_veh48 routing_veh48" vType="veh_passenger" speedFactor="0.88" vaporized=""/>
    <tripinfo id="veh57" depart="254.00" departLane="-1179820253#0_0" departPos="0.85" departSpeed="0.00" departDelay="0.43" arrival="514.00" arrivalLane="33301683_0" arrivalPos="483.14" arrivalSpeed="15.62" duration="260.00" routeLength="1925.26" waitingTime="72.00" waitingCount="4" stopTime="0.00" timeLoss="114.46" rerouteNo="1" devices="tripinfo_veh57 routing_veh57" vType="veh_passenger" speedFactor="1.14" vaporized=""/>
    <tripinfo id="veh59" depart="263.00" departLane="-474362271_0" departPos="5.10" departSpeed="0.00" departDelay="0.53" arrival="514.00" arrivalLane="4613298#2_0" arrivalPos="0.20" arrivalSpeed="6.84" duration="251.00" routeLength="1943.79" waitingTime="48.00" waitingCount="3" stopTime="0.00" timeLoss="81.90" rerouteNo="1" devices="tripinfo_veh59 routing_veh59" vType="veh_passenger" speedFactor="0.97" vaporized=""/>
    <tripinfo id="veh55" depart="245.00" departLane="46140376#1_0" departPos="5.10" departSpeed="0.00" departDelay="0.33" arrival="515.00" arrivalLane="753730627#0_0" arrivalPos="3.65" arrivalSpeed="10.50" duration="270.00" routeLength="1462.00" waitingTime="72.00" waitingCount="5" stopTime="0.00" timeLoss="117.91" rerouteNo="1" devices="tripinfo_veh55 routing_veh55" vType="veh_passenger" speedFactor="1.00" vaporized=""/>
    <tripinfo id="veh41" depart="183.00" departLane="-1101961735#1_0" departPos="5.10" departSpeed="0.00" departDelay="0.61" arrival="520.00" arrivalLane="312176585_0" arrivalPos="60.59" arrivalSpeed="2.10" duration="337.00" routeLength="2390.75" waitingTime="53.00" waitingCount="5" stopTime="0.00" timeLoss="116.28" rerouteNo="1" devices="tripinfo_veh41 routing_veh41" vType="veh_passenger" speedFactor="0.96" vaporized=""/>
    <tripinfo id="veh94" depart="420.00" departLane="155186522#1_1" departPos="4.70" departSpeed="0.00" departDelay="1.83" arrival="526.00" arrivalLane="4611699#0_1" arrivalPos="11.39" arrivalSpeed="14.76" duration="106.00" routeLength="1282.03" waitingTime="4.00" waitingCount="1" stopTime="0.00" timeLoss="19.62" rerouteNo="1" devices="tripinfo_veh94 routing_veh94" vType="veh_passenger" speedFactor="1.09" vaporized=""/>
    <tripinfo id="veh84" depart="374.00" departLane="4610612#0_0" departPos="5.10" departSpeed="0.00" departDelay="0.32" arrival="527.00" arrivalLane="-24992424#5_1" arrivalPos="25.75" arrivalSpeed="15.81" duration="153.00" routeLength="1385.32" waitingTime="4.00" waitingCount="1" stopTime="0.00" timeLoss="38.08" rerouteNo="1" devices="tripinfo_veh84 routing_veh84" vType="veh_passenger" speedFactor="1.15" vaporized=""/>
    <tripinfo id="veh98" depart="436.00" departLane="-4610374#1_0" departPos="5.10" departSpeed="0.00" departDelay="0.04" arrival="533.00" arrivalLane="-169660686#0_0" arrivalPos="112.74" arrivalSpeed="9.26" duration="97.00" routeLength="825.62" waitingTime="0.00" waitingCount="0" stopTime="0.00" timeLoss="16.01" rerouteNo="1" devices="tripinfo_veh98 routing_veh98" vType="veh_passenger" speedFactor="1.12" vaporized=""/>
    <tripinfo id="veh79" depart="352.00" departLane="114667396#2_0" departPos="5.10" departSpeed="0.00" departDelay="0.56" arrival="534.00" arrivalLane="-751595928#1_0" arrivalPos="123.83" arrivalSpeed="8.43" duration="182.00" routeLength="1803.77" waitingTime="13.00" waitingCount="2" stopTime="0.00" timeLoss="42.41" rerouteNo="1" devices="tripinfo_veh79 routing_veh79" vType="veh_passenger" speedFactor="1.09" vaporized=""/>
    <tripinfo id="veh52" depart="232.00" departLane="35557161#1_0" departPos="5.10" departSpeed="0.00" departDelay="0.67" arrival="542.00" arrivalLane="187111590_0" arrivalPos="47.59" arrivalSpeed="13.78" duration="310.00" routeLength="2847.52" waitingTime="13.00" waitingCount="3" stopTime="0.00" timeLoss="55.22" rerouteNo="1" devices="tripinfo_veh52 routing_veh52" vType="veh_passenger" speedFactor="1.02" vaporized=""/>
    <tripinfo id="veh80" depart="356.00" departLane="1159149106#0_0" departPos="5.10" departSpeed="0.00" departDelay="0.11" arrival="542.00" arrivalLane="4612961#1_0" arrivalPos="7.97" arrivalSpeed="13.73" duration="186.00" routeLength="1625.43" waitingTime="6.00" waitingCount="2" stopTime="0.00" timeLoss="37.02" rerouteNo="1" devices="tripinfo_veh80 routing_veh80" vType="veh_passenger" speedFactor="1.03" vaporized=""/>