<?xml version="1.0" encoding="UTF-8"?>

<!-- generated on 2025-06-04 18:28:01 by Eclipse SUMO GUI Version 1.23.0
<sumoConfiguration xmlns:xsi="http://www.w3.org/2001/XMLSchema-instance" xsi:noNamespaceSchemaLocation="http://sumo.dlr.de/xsd/sumoConfiguration.xsd">

    <input>
        <net-file value="C:\Users\Aidan\data\uni\module\sg\3D-Traffic-Geomapping\ExternalData\SumoOutput\2025-05-06-18-46-49\osm.net.xml.gz"/>
        <route-files value="C:\Users\Aidan\data\uni\module\sg\3D-Traffic-Geomapping\ExternalData\SumoOutput\2025-05-06-18-46-49\osm.passenger.trips.xml"/>
        <additional-files value="C:\Users\Aidan\data\uni\module\sg\3D-Traffic-Geomapping\ExternalData\SumoOutput\2025-05-06-18-46-49\osm.poly.xml.gz,C:\Users\Aidan\data\uni\module\sg\3D-Traffic-Geomapping\ExternalData\SumoOutput\2025-05-06-18-46-49\output.add.xml"/>
    </input>

    <output>
        <tripinfo-output value="C:\Users\Aidan\data\uni\module\sg\3D-Traffic-Geomapping\ExternalData\SumoOutput\2025-05-06-18-46-49\tripinfos.xml"/>
        <statistic-output value="C:\Users\Aidan\data\uni\module\sg\3D-Traffic-Geomapping\ExternalData\SumoOutput\2025-05-06-18-46-49\stats.xml"/>
    </output>

    <processing>
        <ignore-route-errors value="true"/>
        <tls.actuated.jam-threshold value="30"/>
    </processing>

    <routing>
        <device.rerouting.adaptation-steps value="18"/>
        <device.rerouting.adaptation-interval value="10"/>
    </routing>

    <report>
        <verbose value="true"/>
        <duration-log.statistics value="true"/>
        <no-step-log value="true"/>
    </report>

    <gui_only>
        <gui-settings-file value="C:\Users\Aidan\data\uni\module\sg\3D-Traffic-Geomapping\ExternalData\SumoOutput\2025-05-06-18-46-49\osm.view.xml"/>
    </gui_only>

</sumoConfiguration>
-->

<tripinfos xmlns:xsi="http://www.w3.org/2001/XMLSchema-instance" xsi:noNamespaceSchemaLocation="http://sumo.dlr.de/xsd/tripinfo_file.xsd">
    <tripinfo id="veh4" depart="18.00" departLane="-437325047#6_0" departPos="5.10" departSpeed="0.00" departDelay="0.21" arrival="98.00" arrivalLane="168940071#7_0" arrivalPos="55.02" arrivalSpeed="8.08" duration="80.00" routeLength="607.96" waitingTime="6.00" waitingCount="1" stopTime="0.00" timeLoss="16.35" rerouteNo="1" devices="tripinfo_veh4 routing_veh4" vType="veh_passenger" speedFactor="1.03" vaporized=""/>
    <tripinfo id="veh6" depart="27.00" departLane="24913267#3_0" departPos="5.10" departSpeed="0.00" departDelay="0.31" arrival="141.00" arrivalLane="194073677#2_0" arrivalPos="0.20" arrivalSpeed="2.89" duration="114.00" routeLength="745.80" waitingTime="4.00" waitingCount="1" stopTime="0.00" timeLoss="26.25" rerouteNo="1" devices="tripinfo_veh6 routing_veh6" vType="veh_passenger" speedFactor="1.05" vaporized=""/>
    <tripinfo id="veh20" depart="89.00" departLane="-1263204721_0" departPos="2.17" departSpeed="0.00" departDelay="0.03" arrival="168.00" arrivalLane="-4610612#0_0" arrivalPos="49.24" arrivalSpeed="8.16" duration="79.00" routeLength="628.64" waitingTime="0.00" waitingCount="0" stopTime="0.00" timeLoss="11.85" rerouteNo="1" devices="tripinfo_veh20 routing_veh20" vType="veh_passenger" speedFactor="1.02" vaporized=""/>
